
     Program PWSCF v.6.4.1 starts on 14Feb2020 at 14:17:14 

     This program is part of the open-source Quantum ESPRESSO suite
     for quantum simulation of materials; please cite
         "P. Giannozzi et al., J. Phys.:Condens. Matter 21 395502 (2009);
         "P. Giannozzi et al., J. Phys.:Condens. Matter 29 465901 (2017);
          URL http://www.quantum-espresso.org", 
     in publications or presentations arising from this work. More details at
     http://www.quantum-espresso.org/quote

     Parallel version (MPI & OpenMP), running on      40 processor cores
     Number of MPI processes:                40
     Threads/MPI process:                     1

     MPI processes distributed on     1 nodes
     R & G space division:  proc/nbgrp/npool/nimage =      40
     Reading input from pwscf.in

     Current dimensions of program PWSCF are:
     Max number of different atomic species (ntypx) = 10
     Max number of k-points (npk) =  40000
     Max angular momentum in pseudopotentials (lmaxx) =  3

     IMPORTANT: XC functional enforced from input :
     Exchange-correlation      = PBE ( 1  4  3  4 0 0)
     Any further DFT definition will be discarded
     Please, verify this is what you really want


     gamma-point specific algorithms are used

     Subspace diagonalization in iterative solution of the eigenvalue problem:
     one sub-group per band group will be used
     scalapack distributed-memory algorithm (size of sub-group:  4*  4 procs)

 
     Parallelization info
     --------------------
     sticks:   dense  smooth     PW     G-vecs:    dense   smooth      PW
     Min          13      13      2                  250      250      26
     Max          18      18      4                  258      258      40
     Sum         569     569    145                10131    10131    1309
 


     bravais-lattice index     =            0
     lattice parameter (alat)  =       9.4487  a.u.
     unit-cell volume          =     843.5585 (a.u.)^3
     number of atoms/cell      =            2
     number of atomic types    =            1
     number of electrons       =        12.00 (up:   7.00, down:   5.00)
     number of Kohn-Sham states=            7
     kinetic-energy cutoff     =      20.0000  Ry
     charge density cutoff     =      80.0000  Ry
     convergence threshold     =      1.0E-08
     mixing beta               =       0.7000
     number of iterations used =            8  plain     mixing
     Exchange-correlation      = PBE ( 1  4  3  4 0 0)

     celldm(1)=   9.448693  celldm(2)=   0.000000  celldm(3)=   0.000000
     celldm(4)=   0.000000  celldm(5)=   0.000000  celldm(6)=   0.000000

     crystal axes: (cart. coord. in units of alat)
               a(1) = (   1.000000   0.000000   0.000000 )  
               a(2) = (   0.000000   1.000000   0.000000 )  
               a(3) = (   0.000000   0.000000   1.000000 )  

     reciprocal axes: (cart. coord. in units 2 pi/alat)
               b(1) = (  1.000000  0.000000  0.000000 )  
               b(2) = (  0.000000  1.000000  0.000000 )  
               b(3) = (  0.000000  0.000000  1.000000 )  


     PseudoPot. # 1 for O  read from file:
     /home/mahe/pseudo/O_ONCV_PBE-1.0.upf
     MD5 check sum: 80a85145cbbb6f60b39549a50e3ff56c
     Pseudo is Norm-conserving, Zval =  6.0
     Generated using ONCVPSP code by D. R. Hamann
     Using radial grid of  602 points,  4 beta functions with: 
                l(1) =   0
                l(2) =   0
                l(3) =   1
                l(4) =   1

     atomic species   valence    mass     pseudopotential
        O              6.00    15.99900     O ( 1.00)

     Starting magnetic structure 
     atomic species   magnetization
        O            0.000

     No symmetry found


                                    s                        frac. trans.

      isym =  1     identity                                     

 cryst.   s( 1) = (     1          0          0      )
                  (     0          1          0      )
                  (     0          0          1      )

 cart.    s( 1) = (  1.0000000  0.0000000  0.0000000 )
                  (  0.0000000  1.0000000  0.0000000 )
                  (  0.0000000  0.0000000  1.0000000 )


   Cartesian axes

     site n.     atom                  positions (alat units)
         1           O   tau(   1) = (   0.0000000   0.0000000   0.0000000  )
         2           O   tau(   2) = (   0.0000000   0.0000000   0.2419984  )

   Crystallographic axes

     site n.     atom                  positions (cryst. coord.)
         1           O   tau(   1) = (  0.0000000  0.0000000  0.0000000  )
         2           O   tau(   2) = (  0.0000000  0.0000000  0.2419984  )

     number of k points=     1
                       cart. coord. in units 2pi/alat
        k(    1) = (   0.0000000   0.0000000   0.0000000), wk =   1.0000000

                       cryst. coord.
        k(    1) = (   0.0000000   0.0000000   0.0000000), wk =   1.0000000

     Dense  grid:     5066 G-vectors     FFT dimensions: (  27,  27,  27)

     Dynamical RAM for                 wfc:       0.00 MB

     Dynamical RAM for     wfc (w. buffer):       0.00 MB

     Dynamical RAM for           str. fact:       0.00 MB

     Dynamical RAM for           local pot:       0.00 MB

     Dynamical RAM for          nlocal pot:       0.00 MB

     Dynamical RAM for                qrad:       0.31 MB

     Dynamical RAM for          rho,v,vnew:       0.04 MB

     Dynamical RAM for               rhoin:       0.01 MB

     Dynamical RAM for            rho*nmix:       0.06 MB

     Dynamical RAM for           G-vectors:       0.01 MB

     Dynamical RAM for          h,s,v(r/c):       0.00 MB

     Dynamical RAM for          <psi|beta>:       0.00 MB

     Dynamical RAM for                 psi:       0.01 MB

     Dynamical RAM for                hpsi:       0.01 MB

     Dynamical RAM for      wfcinit/wfcrot:       0.00 MB

     Estimated static dynamical RAM per process >       0.49 MB

     Estimated max dynamical RAM per process >       0.50 MB

     Estimated total dynamical RAM >      20.06 MB
     Generating pointlists ...
     new r_m :   0.0998 (alat units)  0.9432 (a.u.) for type    1

     Initial potential from superposition of free atoms

     starting charge   11.99809, renormalised to   12.00000

     negative rho (up, down):  1.797E-01 0.000E+00
     Starting wfcs are random

     total cpu time spent up to now is        1.8 secs

     Self-consistent Calculation

     iteration #  1     ecut=    20.00 Ry     beta= 0.70
     Davidson diagonalization with overlap
     ethr =  1.00E-02,  avg # of iterations =  7.5

     negative rho (up, down):  3.222E-07 1.806E-01

     total cpu time spent up to now is        2.0 secs

     total energy              =     -59.31628863 Ry
     Harris-Foulkes estimate   =     -60.50528321 Ry
     estimated scf accuracy    <       1.62383685 Ry

     total magnetization       =     2.00 Bohr mag/cell
     absolute magnetization    =     2.00 Bohr mag/cell

     iteration #  2     ecut=    20.00 Ry     beta= 0.70
     Davidson diagonalization with overlap
     ethr =  1.00E-02,  avg # of iterations =  2.0

     negative rho (up, down):  0.000E+00 1.630E-01

     total cpu time spent up to now is        2.0 secs

     total energy              =     -59.83176156 Ry
     Harris-Foulkes estimate   =     -59.88829474 Ry
     estimated scf accuracy    <       0.14668018 Ry

     total magnetization       =     2.00 Bohr mag/cell
     absolute magnetization    =     2.02 Bohr mag/cell

     iteration #  3     ecut=    20.00 Ry     beta= 0.70
     Davidson diagonalization with overlap
     ethr =  1.22E-03,  avg # of iterations =  5.5

     negative rho (up, down):  0.000E+00 1.608E-01

     total cpu time spent up to now is        2.0 secs

     total energy              =     -60.26177624 Ry
     Harris-Foulkes estimate   =     -60.32279017 Ry
     estimated scf accuracy    <       0.33276671 Ry

     total magnetization       =     2.00 Bohr mag/cell
     absolute magnetization    =     2.01 Bohr mag/cell

     iteration #  4     ecut=    20.00 Ry     beta= 0.70
     Davidson diagonalization with overlap
     ethr =  1.22E-03,  avg # of iterations =  1.0

     negative rho (up, down):  0.000E+00 7.372E-02

     total cpu time spent up to now is        2.1 secs

     total energy              =     -60.17747866 Ry
     Harris-Foulkes estimate   =     -60.26504080 Ry
     estimated scf accuracy    <       0.19096107 Ry

     total magnetization       =     2.00 Bohr mag/cell
     absolute magnetization    =     2.01 Bohr mag/cell

     iteration #  5     ecut=    20.00 Ry     beta= 0.70
     Davidson diagonalization with overlap
     ethr =  1.22E-03,  avg # of iterations =  2.0

     negative rho (up, down):  3.571E-07 3.556E-03

     total cpu time spent up to now is        2.1 secs

     total energy              =     -60.20457154 Ry
     Harris-Foulkes estimate   =     -60.20750807 Ry
     estimated scf accuracy    <       0.00986705 Ry

     total magnetization       =     2.00 Bohr mag/cell
     absolute magnetization    =     2.03 Bohr mag/cell

     iteration #  6     ecut=    20.00 Ry     beta= 0.70
     Davidson diagonalization with overlap
     ethr =  8.22E-05,  avg # of iterations =  2.0

     negative rho (up, down):  0.000E+00 2.032E-04

     total cpu time spent up to now is        2.1 secs

     total energy              =     -60.20594104 Ry
     Harris-Foulkes estimate   =     -60.20653557 Ry
     estimated scf accuracy    <       0.00083747 Ry

     total magnetization       =     2.00 Bohr mag/cell
     absolute magnetization    =     2.04 Bohr mag/cell

     iteration #  7     ecut=    20.00 Ry     beta= 0.70
     Davidson diagonalization with overlap
     ethr =  6.98E-06,  avg # of iterations =  2.0

     negative rho (up, down):  5.841E-08 3.048E-03

     total cpu time spent up to now is        2.1 secs

     total energy              =     -60.20618426 Ry
     Harris-Foulkes estimate   =     -60.20633913 Ry
     estimated scf accuracy    <       0.00027357 Ry

     total magnetization       =     2.00 Bohr mag/cell
     absolute magnetization    =     2.04 Bohr mag/cell

     iteration #  8     ecut=    20.00 Ry     beta= 0.70
     Davidson diagonalization with overlap
     ethr =  2.28E-06,  avg # of iterations =  2.0

     total cpu time spent up to now is        2.1 secs

     total energy              =     -60.20624650 Ry
     Harris-Foulkes estimate   =     -60.20625038 Ry
     estimated scf accuracy    <       0.00000710 Ry

     total magnetization       =     2.00 Bohr mag/cell
     absolute magnetization    =     2.04 Bohr mag/cell

     iteration #  9     ecut=    20.00 Ry     beta= 0.70
     Davidson diagonalization with overlap
     ethr =  5.92E-08,  avg # of iterations =  2.0

     total cpu time spent up to now is        2.1 secs

     total energy              =     -60.20624864 Ry
     Harris-Foulkes estimate   =     -60.20624931 Ry
     estimated scf accuracy    <       0.00000132 Ry

     total magnetization       =     2.00 Bohr mag/cell
     absolute magnetization    =     2.04 Bohr mag/cell

     iteration # 10     ecut=    20.00 Ry     beta= 0.70
     Davidson diagonalization with overlap
     ethr =  1.10E-08,  avg # of iterations =  2.0

     total cpu time spent up to now is        2.2 secs

     total energy              =     -60.20624903 Ry
     Harris-Foulkes estimate   =     -60.20624901 Ry
     estimated scf accuracy    <       0.00000006 Ry

     total magnetization       =     2.00 Bohr mag/cell
     absolute magnetization    =     2.04 Bohr mag/cell

     iteration # 11     ecut=    20.00 Ry     beta= 0.70
     Davidson diagonalization with overlap
     ethr =  4.77E-10,  avg # of iterations =  2.5
 
     Magnetic moment per site:
     atom:    1    charge:    2.3744    magn:    0.3843    constr:    0.0000
     atom:    2    charge:    2.4506    magn:    0.3877    constr:    0.0000

     total cpu time spent up to now is        2.2 secs

     End of self-consistent calculation

 ------ SPIN UP ------------


          k = 0.0000 0.0000 0.0000 (   655 PWs)   bands (ev):

   -34.7882 -22.4010 -11.4178 -11.3133 -11.3132  -3.4692  -3.4691

     occupation numbers 
     1.0000   1.0000   1.0000   1.0000   1.0000   1.0000   1.0000

 ------ SPIN DOWN ----------


          k = 0.0000 0.0000 0.0000 (   655 PWs)   bands (ev):

   -33.6855 -20.6812 -10.5956  -9.6779  -9.6778  -1.3921  -1.3920

     occupation numbers 
     1.0000   1.0000   1.0000   1.0000   1.0000   0.0000   0.0000

     highest occupied, lowest unoccupied level (ev):    -3.4691   -1.3921

!    total energy              =     -60.20624905 Ry
     Harris-Foulkes estimate   =     -60.20624905 Ry
     estimated scf accuracy    <          2.0E-09 Ry

     The total energy is the sum of the following terms:

     one-electron contribution =     -76.48831912 Ry
     hartree contribution      =      39.88805438 Ry
     xc contribution           =     -12.87027240 Ry
     ewald contribution        =     -10.73571190 Ry

     total magnetization       =     2.00 Bohr mag/cell
     absolute magnetization    =     2.04 Bohr mag/cell

     convergence has been achieved in  11 iterations

     Writing output data file pwscf.save/
 
     init_run     :      0.10s CPU      0.95s WALL (       1 calls)
     electrons    :      0.29s CPU      0.39s WALL (       1 calls)

     Called by init_run:
     wfcinit      :      0.04s CPU      0.39s WALL (       1 calls)
     wfcinit:atom :      0.00s CPU      0.00s WALL (       2 calls)
     wfcinit:wfcr :      0.04s CPU      0.39s WALL (       2 calls)
     potinit      :      0.03s CPU      0.09s WALL (       1 calls)
     hinit0       :      0.02s CPU      0.23s WALL (       1 calls)

     Called by electrons:
     c_bands      :      0.23s CPU      0.26s WALL (      11 calls)
     sum_band     :      0.01s CPU      0.02s WALL (      11 calls)
     v_of_rho     :      0.04s CPU      0.07s WALL (      12 calls)
     v_h          :      0.01s CPU      0.01s WALL (      12 calls)
     v_xc         :      0.03s CPU      0.05s WALL (      12 calls)
     mix_rho      :      0.01s CPU      0.03s WALL (      11 calls)

     Called by c_bands:
     init_us_2    :      0.00s CPU      0.00s WALL (      46 calls)
     regterg      :      0.23s CPU      0.25s WALL (      22 calls)

     Called by sum_band:

     Called by *egterg:
     h_psi        :      0.04s CPU      0.06s WALL (      85 calls)
     g_psi        :      0.00s CPU      0.00s WALL (      61 calls)
     rdiaghg      :      0.13s CPU      0.45s WALL (      83 calls)
     regterg:over :      0.03s CPU      0.03s WALL (      61 calls)
     regterg:upda :      0.02s CPU      0.02s WALL (      61 calls)
     regterg:last :      0.01s CPU      0.01s WALL (      24 calls)
     rdiaghg:chol :      0.01s CPU      0.08s WALL (      83 calls)
     rdiaghg:inve :      0.00s CPU      0.01s WALL (      83 calls)
     rdiaghg:para :      0.01s CPU      0.01s WALL (     166 calls)

     Called by h_psi:
     h_psi:pot    :      0.04s CPU      0.06s WALL (      85 calls)
     h_psi:calbec :      0.00s CPU      0.01s WALL (      85 calls)
     vloc_psi     :      0.03s CPU      0.04s WALL (      85 calls)
     add_vuspsi   :      0.00s CPU      0.00s WALL (      85 calls)

     General routines
     calbec       :      0.00s CPU      0.01s WALL (      85 calls)
     fft          :      0.03s CPU      0.23s WALL (     176 calls)
     ffts         :      0.00s CPU      0.00s WALL (      22 calls)
     fftw         :      0.04s CPU      0.04s WALL (     660 calls)
 
     Parallel routines
     fft_scatt_xy :      0.00s CPU      0.00s WALL (     858 calls)
     fft_scatt_yz :      0.07s CPU      0.07s WALL (     858 calls)
 
     PWSCF        :      0.53s CPU      2.36s WALL

 
   This run was terminated on:  14:17:16  14Feb2020            

=------------------------------------------------------------------------------=
   JOB DONE.
=------------------------------------------------------------------------------=
