
     Program PWSCF v.6.4.1 starts on 14Feb2020 at 17:11:47 

     This program is part of the open-source Quantum ESPRESSO suite
     for quantum simulation of materials; please cite
         "P. Giannozzi et al., J. Phys.:Condens. Matter 21 395502 (2009);
         "P. Giannozzi et al., J. Phys.:Condens. Matter 29 465901 (2017);
          URL http://www.quantum-espresso.org", 
     in publications or presentations arising from this work. More details at
     http://www.quantum-espresso.org/quote

     Parallel version (MPI & OpenMP), running on      40 processor cores
     Number of MPI processes:                40
     Threads/MPI process:                     1

     MPI processes distributed on     1 nodes
     R & G space division:  proc/nbgrp/npool/nimage =      40
     Reading input from pw.in

     Current dimensions of program PWSCF are:
     Max number of different atomic species (ntypx) = 10
     Max number of k-points (npk) =  40000
     Max angular momentum in pseudopotentials (lmaxx) =  3

     IMPORTANT: XC functional enforced from input :
     Exchange-correlation      = PBE ( 1  4  3  4 0 0)
     Any further DFT definition will be discarded
     Please, verify this is what you really want


     gamma-point specific algorithms are used

     Subspace diagonalization in iterative solution of the eigenvalue problem:
     one sub-group per band group will be used
     scalapack distributed-memory algorithm (size of sub-group:  4*  4 procs)

 
     Parallelization info
     --------------------
     sticks:   dense  smooth     PW     G-vecs:    dense   smooth      PW
     Min          72      72     17                 2924     2924     366
     Max          74      74     20                 2934     2934     374
     Sum        2885    2885    725               117161   117161   14771
 


     bravais-lattice index     =            0
     lattice parameter (alat)  =      13.4851  a.u.
     unit-cell volume          =    2452.2626 (a.u.)^3
     number of atoms/cell      =           63
     number of atomic types    =            2
     number of electrons       =       254.00 (up: 128.00, down: 126.00)
     number of Kohn-Sham states=          128
     kinetic-energy cutoff     =      50.0000  Ry
     charge density cutoff     =     200.0000  Ry
     convergence threshold     =      1.0E-08
     mixing beta               =       0.7000
     number of iterations used =            8  plain     mixing
     Exchange-correlation      = PBE ( 1  4  3  4 0 0)

     celldm(1)=  13.485146  celldm(2)=   0.000000  celldm(3)=   0.000000
     celldm(4)=   0.000000  celldm(5)=   0.000000  celldm(6)=   0.000000

     crystal axes: (cart. coord. in units of alat)
               a(1) = (   1.000000   0.000000   0.000000 )  
               a(2) = (   0.000000   1.000000   0.000000 )  
               a(3) = (   0.000000   0.000000   1.000000 )  

     reciprocal axes: (cart. coord. in units 2 pi/alat)
               b(1) = (  1.000000  0.000000  0.000000 )  
               b(2) = (  0.000000  1.000000  0.000000 )  
               b(3) = (  0.000000  0.000000  1.000000 )  


     PseudoPot. # 1 for C  read from file:
     /home/mahe/pseudo/C_ONCV_PBE-1.0.upf
     MD5 check sum: 40f8c33130f0afa4272e9dcc1c4fb0df
     Pseudo is Norm-conserving, Zval =  4.0
     Generated using ONCVPSP code by D. R. Hamann
     Using radial grid of  602 points,  4 beta functions with: 
                l(1) =   0
                l(2) =   0
                l(3) =   1
                l(4) =   1

     PseudoPot. # 2 for N  read from file:
     /home/mahe/pseudo/N_ONCV_PBE-1.0.upf
     MD5 check sum: e7391ac1e3da9302b4611eea0a09cd4a
     Pseudo is Norm-conserving, Zval =  5.0
     Generated using ONCVPSP code by D. R. Hamann
     Using radial grid of  602 points,  4 beta functions with: 
                l(1) =   0
                l(2) =   0
                l(3) =   1
                l(4) =   1

     atomic species   valence    mass     pseudopotential
        C              4.00    12.01100     C ( 1.00)
        N              5.00    14.00700     N ( 1.00)

     Starting magnetic structure 
     atomic species   magnetization
        C            0.000
        N            0.000

     No symmetry found


                                    s                        frac. trans.

      isym =  1     identity                                     

 cryst.   s( 1) = (     1          0          0      )
                  (     0          1          0      )
                  (     0          0          1      )

 cart.    s( 1) = (  1.0000000  0.0000000  0.0000000 )
                  (  0.0000000  1.0000000  0.0000000 )
                  (  0.0000000  0.0000000  1.0000000 )


   Cartesian axes

     site n.     atom                  positions (alat units)
         1           C   tau(   1) = (   0.9999500   0.9999500   0.9999500  )
         2           C   tau(   2) = (   0.1249400   0.1249400   0.1249400  )
         3           C   tau(   3) = (   0.9991700   0.2503400   0.2503400  )
         4           C   tau(   4) = (   0.1236100   0.3749800   0.3749800  )
         5           C   tau(   5) = (   0.2503400   0.9991700   0.2503400  )
         6           C   tau(   6) = (   0.3749800   0.1236100   0.3749800  )
         7           C   tau(   7) = (   0.2503400   0.2503400   0.9991700  )
         8           C   tau(   8) = (   0.3749800   0.3749800   0.1236100  )
         9           C   tau(   9) = (   0.0014300   0.0014300   0.5010300  )
        10           C   tau(  10) = (   0.1251000   0.1251000   0.6250500  )
        11           C   tau(  11) = (   0.0009300   0.2494900   0.7496300  )
        12           C   tau(  12) = (   0.1260800   0.3754000   0.8741000  )
        13           C   tau(  13) = (   0.2494900   0.0009300   0.7496300  )
        14           C   tau(  14) = (   0.3754000   0.1260800   0.8741000  )
        15           C   tau(  15) = (   0.2484300   0.2484300   0.4997200  )
        16           C   tau(  16) = (   0.3751800   0.3751800   0.6189900  )
        17           C   tau(  17) = (   0.0014300   0.5010300   0.0014300  )
        18           C   tau(  18) = (   0.1251000   0.6250500   0.1251000  )
        19           C   tau(  19) = (   0.0009300   0.7496300   0.2494900  )
        20           C   tau(  20) = (   0.1260800   0.8741000   0.3754000  )
        21           C   tau(  21) = (   0.2484300   0.4997200   0.2484300  )
        22           C   tau(  22) = (   0.3751800   0.6189900   0.3751800  )
        23           C   tau(  23) = (   0.2494900   0.7496300   0.0009300  )
        24           C   tau(  24) = (   0.3754000   0.8741000   0.1260800  )
        25           C   tau(  25) = (   0.9988700   0.5007300   0.5007300  )
        26           C   tau(  26) = (   0.1250400   0.6251200   0.6251200  )
        27           C   tau(  27) = (   0.9996100   0.7498400   0.7498400  )
        28           C   tau(  28) = (   0.1249100   0.8749100   0.8749100  )
        29           C   tau(  29) = (   0.2521600   0.5014200   0.7476800  )
        30           C   tau(  30) = (   0.3774900   0.6266200   0.8730700  )
        31           C   tau(  31) = (   0.2521600   0.7476800   0.5014200  )
        32           C   tau(  32) = (   0.3774900   0.8730700   0.6266200  )
        33           C   tau(  33) = (   0.5010300   0.0014300   0.0014300  )
        34           C   tau(  34) = (   0.6250500   0.1251000   0.1251000  )
        35           C   tau(  35) = (   0.4997200   0.2484300   0.2484300  )
        36           C   tau(  36) = (   0.6189900   0.3751800   0.3751800  )
        37           C   tau(  37) = (   0.7496300   0.0009300   0.2494900  )
        38           C   tau(  38) = (   0.8741000   0.1260800   0.3754000  )
        39           C   tau(  39) = (   0.7496300   0.2494900   0.0009300  )
        40           C   tau(  40) = (   0.8741000   0.3754000   0.1260800  )
        41           C   tau(  41) = (   0.5007300   0.9988700   0.5007300  )
        42           C   tau(  42) = (   0.6251200   0.1250400   0.6251200  )
        43           C   tau(  43) = (   0.5014200   0.2521600   0.7476800  )
        44           C   tau(  44) = (   0.6266200   0.3774900   0.8730700  )
        45           C   tau(  45) = (   0.7498400   0.9996100   0.7498400  )
        46           C   tau(  46) = (   0.8749100   0.1249100   0.8749100  )
        47           C   tau(  47) = (   0.7476800   0.2521600   0.5014200  )
        48           C   tau(  48) = (   0.8730700   0.3774900   0.6266200  )
        49           C   tau(  49) = (   0.5007300   0.5007300   0.9988700  )
        50           C   tau(  50) = (   0.6251200   0.6251200   0.1250400  )
        51           C   tau(  51) = (   0.5014200   0.7476800   0.2521600  )
        52           C   tau(  52) = (   0.6266200   0.8730700   0.3774900  )
        53           C   tau(  53) = (   0.7476800   0.5014200   0.2521600  )
        54           C   tau(  54) = (   0.8730700   0.6266200   0.3774900  )
        55           C   tau(  55) = (   0.7498400   0.7498400   0.9996100  )
        56           C   tau(  56) = (   0.8749100   0.8749100   0.1249100  )
        57           N   tau(  57) = (   0.4870500   0.4870500   0.4870500  )
        58           C   tau(  58) = (   0.4921200   0.7607800   0.7607800  )
        59           C   tau(  59) = (   0.6237400   0.8746900   0.8746900  )
        60           C   tau(  60) = (   0.7607800   0.4921200   0.7607800  )
        61           C   tau(  61) = (   0.8746900   0.6237400   0.8746900  )
        62           C   tau(  62) = (   0.7607800   0.7607800   0.4921200  )
        63           C   tau(  63) = (   0.8746900   0.8746900   0.6237400  )

   Crystallographic axes

     site n.     atom                  positions (cryst. coord.)
         1           C   tau(   1) = (  0.9999500  0.9999500  0.9999500  )
         2           C   tau(   2) = (  0.1249400  0.1249400  0.1249400  )
         3           C   tau(   3) = (  0.9991700  0.2503400  0.2503400  )
         4           C   tau(   4) = (  0.1236100  0.3749800  0.3749800  )
         5           C   tau(   5) = (  0.2503400  0.9991700  0.2503400  )
         6           C   tau(   6) = (  0.3749800  0.1236100  0.3749800  )
         7           C   tau(   7) = (  0.2503400  0.2503400  0.9991700  )
         8           C   tau(   8) = (  0.3749800  0.3749800  0.1236100  )
         9           C   tau(   9) = (  0.0014300  0.0014300  0.5010300  )
        10           C   tau(  10) = (  0.1251000  0.1251000  0.6250500  )
        11           C   tau(  11) = (  0.0009300  0.2494900  0.7496300  )
        12           C   tau(  12) = (  0.1260800  0.3754000  0.8741000  )
        13           C   tau(  13) = (  0.2494900  0.0009300  0.7496300  )
        14           C   tau(  14) = (  0.3754000  0.1260800  0.8741000  )
        15           C   tau(  15) = (  0.2484300  0.2484300  0.4997200  )
        16           C   tau(  16) = (  0.3751800  0.3751800  0.6189900  )
        17           C   tau(  17) = (  0.0014300  0.5010300  0.0014300  )
        18           C   tau(  18) = (  0.1251000  0.6250500  0.1251000  )
        19           C   tau(  19) = (  0.0009300  0.7496300  0.2494900  )
        20           C   tau(  20) = (  0.1260800  0.8741000  0.3754000  )
        21           C   tau(  21) = (  0.2484300  0.4997200  0.2484300  )
        22           C   tau(  22) = (  0.3751800  0.6189900  0.3751800  )
        23           C   tau(  23) = (  0.2494900  0.7496300  0.0009300  )
        24           C   tau(  24) = (  0.3754000  0.8741000  0.1260800  )
        25           C   tau(  25) = (  0.9988700  0.5007300  0.5007300  )
        26           C   tau(  26) = (  0.1250400  0.6251200  0.6251200  )
        27           C   tau(  27) = (  0.9996100  0.7498400  0.7498400  )
        28           C   tau(  28) = (  0.1249100  0.8749100  0.8749100  )
        29           C   tau(  29) = (  0.2521600  0.5014200  0.7476800  )
        30           C   tau(  30) = (  0.3774900  0.6266200  0.8730700  )
        31           C   tau(  31) = (  0.2521600  0.7476800  0.5014200  )
        32           C   tau(  32) = (  0.3774900  0.8730700  0.6266200  )
        33           C   tau(  33) = (  0.5010300  0.0014300  0.0014300  )
        34           C   tau(  34) = (  0.6250500  0.1251000  0.1251000  )
        35           C   tau(  35) = (  0.4997200  0.2484300  0.2484300  )
        36           C   tau(  36) = (  0.6189900  0.3751800  0.3751800  )
        37           C   tau(  37) = (  0.7496300  0.0009300  0.2494900  )
        38           C   tau(  38) = (  0.8741000  0.1260800  0.3754000  )
        39           C   tau(  39) = (  0.7496300  0.2494900  0.0009300  )
        40           C   tau(  40) = (  0.8741000  0.3754000  0.1260800  )
        41           C   tau(  41) = (  0.5007300  0.9988700  0.5007300  )
        42           C   tau(  42) = (  0.6251200  0.1250400  0.6251200  )
        43           C   tau(  43) = (  0.5014200  0.2521600  0.7476800  )
        44           C   tau(  44) = (  0.6266200  0.3774900  0.8730700  )
        45           C   tau(  45) = (  0.7498400  0.9996100  0.7498400  )
        46           C   tau(  46) = (  0.8749100  0.1249100  0.8749100  )
        47           C   tau(  47) = (  0.7476800  0.2521600  0.5014200  )
        48           C   tau(  48) = (  0.8730700  0.3774900  0.6266200  )
        49           C   tau(  49) = (  0.5007300  0.5007300  0.9988700  )
        50           C   tau(  50) = (  0.6251200  0.6251200  0.1250400  )
        51           C   tau(  51) = (  0.5014200  0.7476800  0.2521600  )
        52           C   tau(  52) = (  0.6266200  0.8730700  0.3774900  )
        53           C   tau(  53) = (  0.7476800  0.5014200  0.2521600  )
        54           C   tau(  54) = (  0.8730700  0.6266200  0.3774900  )
        55           C   tau(  55) = (  0.7498400  0.7498400  0.9996100  )
        56           C   tau(  56) = (  0.8749100  0.8749100  0.1249100  )
        57           N   tau(  57) = (  0.4870500  0.4870500  0.4870500  )
        58           C   tau(  58) = (  0.4921200  0.7607800  0.7607800  )
        59           C   tau(  59) = (  0.6237400  0.8746900  0.8746900  )
        60           C   tau(  60) = (  0.7607800  0.4921200  0.7607800  )
        61           C   tau(  61) = (  0.8746900  0.6237400  0.8746900  )
        62           C   tau(  62) = (  0.7607800  0.7607800  0.4921200  )
        63           C   tau(  63) = (  0.8746900  0.8746900  0.6237400  )

     number of k points=     1
                       cart. coord. in units 2pi/alat
        k(    1) = (   0.0000000   0.0000000   0.0000000), wk =   1.0000000

                       cryst. coord.
        k(    1) = (   0.0000000   0.0000000   0.0000000), wk =   1.0000000

     Dense  grid:    58581 G-vectors     FFT dimensions: (  64,  64,  64)

     Dynamical RAM for                 wfc:       0.36 MB

     Dynamical RAM for     wfc (w. buffer):       1.07 MB

     Dynamical RAM for           str. fact:       0.04 MB

     Dynamical RAM for           local pot:       0.00 MB

     Dynamical RAM for          nlocal pot:       1.41 MB

     Dynamical RAM for                qrad:       1.39 MB

     Dynamical RAM for          rho,v,vnew:       0.51 MB

     Dynamical RAM for               rhoin:       0.17 MB

     Dynamical RAM for            rho*nmix:       0.72 MB

     Dynamical RAM for           G-vectors:       0.10 MB

     Dynamical RAM for          h,s,v(r/c):       0.38 MB

     Dynamical RAM for          <psi|beta>:       0.49 MB

     Dynamical RAM for                 psi:       1.43 MB

     Dynamical RAM for                hpsi:       1.43 MB

     Dynamical RAM for      wfcinit/wfcrot:       1.09 MB

     Estimated static dynamical RAM per process >       5.85 MB

     Estimated max dynamical RAM per process >       9.57 MB

     Estimated total dynamical RAM >     382.96 MB
     Generating pointlists ...
     new r_m :   0.0850 (alat units)  1.1459 (a.u.) for type    1
     new r_m :   0.0850 (alat units)  1.1459 (a.u.) for type    2

     Initial potential from superposition of free atoms

     starting charge  252.56549, renormalised to  254.00000
     Starting wfcs are random

     total cpu time spent up to now is        0.3 secs

     Self-consistent Calculation

     iteration #  1     ecut=    50.00 Ry     beta= 0.70
     Davidson diagonalization with overlap
     ethr =  1.00E-02,  avg # of iterations = 11.0

     total cpu time spent up to now is        1.5 secs

     total energy              =    -723.43092151 Ry
     Harris-Foulkes estimate   =    -725.06265664 Ry
     estimated scf accuracy    <       3.74465035 Ry

     total magnetization       =     2.00 Bohr mag/cell
     absolute magnetization    =     2.14 Bohr mag/cell

     iteration #  2     ecut=    50.00 Ry     beta= 0.70
     Davidson diagonalization with overlap
     ethr =  1.47E-03,  avg # of iterations =  3.0

     total cpu time spent up to now is        1.9 secs

     total energy              =    -723.73777210 Ry
     Harris-Foulkes estimate   =    -723.96507790 Ry
     estimated scf accuracy    <       0.35484720 Ry

     total magnetization       =     2.00 Bohr mag/cell
     absolute magnetization    =     2.12 Bohr mag/cell

     iteration #  3     ecut=    50.00 Ry     beta= 0.70
     Davidson diagonalization with overlap
     ethr =  1.40E-04,  avg # of iterations =  4.5

     total cpu time spent up to now is        2.5 secs

     total energy              =    -723.76156404 Ry
     Harris-Foulkes estimate   =    -724.07886257 Ry
     estimated scf accuracy    <       0.73561870 Ry

     total magnetization       =     2.00 Bohr mag/cell
     absolute magnetization    =     2.13 Bohr mag/cell

     iteration #  4     ecut=    50.00 Ry     beta= 0.70
     Davidson diagonalization with overlap
     ethr =  1.40E-04,  avg # of iterations =  4.0

     total cpu time spent up to now is        3.0 secs

     total energy              =    -723.91276157 Ry
     Harris-Foulkes estimate   =    -723.91856478 Ry
     estimated scf accuracy    <       0.01553718 Ry

     total magnetization       =     2.00 Bohr mag/cell
     absolute magnetization    =     2.19 Bohr mag/cell

     iteration #  5     ecut=    50.00 Ry     beta= 0.70
     Davidson diagonalization with overlap
     ethr =  6.12E-06,  avg # of iterations =  3.5

     total cpu time spent up to now is        3.4 secs

     total energy              =    -723.91805336 Ry
     Harris-Foulkes estimate   =    -723.91923041 Ry
     estimated scf accuracy    <       0.00352268 Ry

     total magnetization       =     2.00 Bohr mag/cell
     absolute magnetization    =     2.22 Bohr mag/cell

     iteration #  6     ecut=    50.00 Ry     beta= 0.70
     Davidson diagonalization with overlap
     ethr =  1.39E-06,  avg # of iterations =  3.5

     total cpu time spent up to now is        3.9 secs

     total energy              =    -723.91884440 Ry
     Harris-Foulkes estimate   =    -723.91895052 Ry
     estimated scf accuracy    <       0.00041869 Ry

     total magnetization       =     2.00 Bohr mag/cell
     absolute magnetization    =     2.25 Bohr mag/cell

     iteration #  7     ecut=    50.00 Ry     beta= 0.70
     Davidson diagonalization with overlap
     ethr =  1.65E-07,  avg # of iterations =  4.0

     total cpu time spent up to now is        4.4 secs

     total energy              =    -723.91899743 Ry
     Harris-Foulkes estimate   =    -723.91898527 Ry
     estimated scf accuracy    <       0.00005121 Ry

     total magnetization       =     2.00 Bohr mag/cell
     absolute magnetization    =     2.26 Bohr mag/cell

     iteration #  8     ecut=    50.00 Ry     beta= 0.70
     Davidson diagonalization with overlap
     ethr =  2.02E-08,  avg # of iterations =  4.0

     total cpu time spent up to now is        4.9 secs

     total energy              =    -723.91902308 Ry
     Harris-Foulkes estimate   =    -723.91901870 Ry
     estimated scf accuracy    <       0.00001035 Ry

     total magnetization       =     2.00 Bohr mag/cell
     absolute magnetization    =     2.27 Bohr mag/cell

     iteration #  9     ecut=    50.00 Ry     beta= 0.70
     Davidson diagonalization with overlap
     ethr =  4.07E-09,  avg # of iterations =  4.5

     total cpu time spent up to now is        5.4 secs

     total energy              =    -723.91902828 Ry
     Harris-Foulkes estimate   =    -723.91902758 Ry
     estimated scf accuracy    <       0.00000191 Ry

     total magnetization       =     2.00 Bohr mag/cell
     absolute magnetization    =     2.28 Bohr mag/cell

     iteration # 10     ecut=    50.00 Ry     beta= 0.70
     Davidson diagonalization with overlap
     ethr =  7.54E-10,  avg # of iterations =  4.5

     total cpu time spent up to now is        6.0 secs

     total energy              =    -723.91902922 Ry
     Harris-Foulkes estimate   =    -723.91902946 Ry
     estimated scf accuracy    <       0.00000134 Ry

     total magnetization       =     2.00 Bohr mag/cell
     absolute magnetization    =     2.29 Bohr mag/cell

     iteration # 11     ecut=    50.00 Ry     beta= 0.70
     Davidson diagonalization with overlap
     ethr =  5.27E-10,  avg # of iterations =  4.0

     total cpu time spent up to now is        6.5 secs

     total energy              =    -723.91902964 Ry
     Harris-Foulkes estimate   =    -723.91902958 Ry
     estimated scf accuracy    <       0.00000011 Ry

     total magnetization       =     2.00 Bohr mag/cell
     absolute magnetization    =     2.29 Bohr mag/cell

     iteration # 12     ecut=    50.00 Ry     beta= 0.70
     Davidson diagonalization with overlap
     ethr =  4.43E-11,  avg # of iterations =  4.5

     total cpu time spent up to now is        7.1 secs

     total energy              =    -723.91902972 Ry
     Harris-Foulkes estimate   =    -723.91902971 Ry
     estimated scf accuracy    <       0.00000003 Ry

     total magnetization       =     2.00 Bohr mag/cell
     absolute magnetization    =     2.29 Bohr mag/cell

     iteration # 13     ecut=    50.00 Ry     beta= 0.70
     Davidson diagonalization with overlap
     ethr =  1.12E-11,  avg # of iterations =  3.5
 
     Magnetic moment per site:
     atom:    1    charge:    1.8063    magn:    0.0010    constr:    0.0000
     atom:    2    charge:    1.8000    magn:    0.0010    constr:    0.0000
     atom:    3    charge:    1.8074    magn:    0.0018    constr:    0.0000
     atom:    4    charge:    1.8035    magn:   -0.0009    constr:    0.0000
     atom:    5    charge:    1.8074    magn:    0.0018    constr:    0.0000
     atom:    6    charge:    1.8035    magn:   -0.0009    constr:    0.0000
     atom:    7    charge:    1.8074    magn:    0.0018    constr:    0.0000
     atom:    8    charge:    1.8035    magn:   -0.0009    constr:    0.0000
     atom:    9    charge:    1.8018    magn:    0.0181    constr:    0.0000
     atom:   10    charge:    1.8211    magn:    0.0089    constr:    0.0000
     atom:   11    charge:    1.8022    magn:    0.0212    constr:    0.0000
     atom:   12    charge:    1.7967    magn:   -0.0013    constr:    0.0000
     atom:   13    charge:    1.8022    magn:    0.0212    constr:    0.0000
     atom:   14    charge:    1.7967    magn:   -0.0013    constr:    0.0000
     atom:   15    charge:    1.8135    magn:    0.0031    constr:    0.0000
     atom:   16    charge:    1.7826    magn:   -0.0000    constr:    0.0000
     atom:   17    charge:    1.8018    magn:    0.0181    constr:    0.0000
     atom:   18    charge:    1.8211    magn:    0.0089    constr:    0.0000
     atom:   19    charge:    1.8022    magn:    0.0212    constr:    0.0000
     atom:   20    charge:    1.7967    magn:   -0.0013    constr:    0.0000
     atom:   21    charge:    1.8135    magn:    0.0032    constr:    0.0000
     atom:   22    charge:    1.7826    magn:   -0.0000    constr:    0.0000
     atom:   23    charge:    1.8022    magn:    0.0212    constr:    0.0000
     atom:   24    charge:    1.7966    magn:   -0.0013    constr:    0.0000
     atom:   25    charge:    1.8029    magn:    0.0085    constr:    0.0000
     atom:   26    charge:    1.8098    magn:   -0.0018    constr:    0.0000
     atom:   27    charge:    1.8017    magn:    0.0086    constr:    0.0000
     atom:   28    charge:    1.8028    magn:   -0.0019    constr:    0.0000
     atom:   29    charge:    1.7958    magn:    0.0054    constr:    0.0000
     atom:   30    charge:    1.8044    magn:   -0.0034    constr:    0.0000
     atom:   31    charge:    1.7958    magn:    0.0054    constr:    0.0000
     atom:   32    charge:    1.8044    magn:   -0.0034    constr:    0.0000
     atom:   33    charge:    1.8018    magn:    0.0181    constr:    0.0000
     atom:   34    charge:    1.8211    magn:    0.0089    constr:    0.0000
     atom:   35    charge:    1.8135    magn:    0.0032    constr:    0.0000
     atom:   36    charge:    1.7826    magn:   -0.0000    constr:    0.0000
     atom:   37    charge:    1.8022    magn:    0.0212    constr:    0.0000
     atom:   38    charge:    1.7966    magn:   -0.0013    constr:    0.0000
     atom:   39    charge:    1.8022    magn:    0.0212    constr:    0.0000
     atom:   40    charge:    1.7966    magn:   -0.0013    constr:    0.0000
     atom:   41    charge:    1.8028    magn:    0.0085    constr:    0.0000
     atom:   42    charge:    1.8097    magn:   -0.0018    constr:    0.0000
     atom:   43    charge:    1.7958    magn:    0.0054    constr:    0.0000
     atom:   44    charge:    1.8044    magn:   -0.0034    constr:    0.0000
     atom:   45    charge:    1.8017    magn:    0.0086    constr:    0.0000
     atom:   46    charge:    1.8028    magn:   -0.0019    constr:    0.0000
     atom:   47    charge:    1.7958    magn:    0.0054    constr:    0.0000
     atom:   48    charge:    1.8044    magn:   -0.0034    constr:    0.0000
     atom:   49    charge:    1.8028    magn:    0.0085    constr:    0.0000
     atom:   50    charge:    1.8097    magn:   -0.0018    constr:    0.0000
     atom:   51    charge:    1.7958    magn:    0.0054    constr:    0.0000
     atom:   52    charge:    1.8044    magn:   -0.0034    constr:    0.0000
     atom:   53    charge:    1.7958    magn:    0.0054    constr:    0.0000
     atom:   54    charge:    1.8044    magn:   -0.0034    constr:    0.0000
     atom:   55    charge:    1.8017    magn:    0.0086    constr:    0.0000
     atom:   56    charge:    1.8028    magn:   -0.0019    constr:    0.0000
     atom:   57    charge:    2.8992    magn:    0.0040    constr:    0.0000
     atom:   58    charge:    1.8143    magn:    0.2496    constr:    0.0000
     atom:   59    charge:    1.8128    magn:   -0.0087    constr:    0.0000
     atom:   60    charge:    1.8143    magn:    0.2496    constr:    0.0000
     atom:   61    charge:    1.8128    magn:   -0.0087    constr:    0.0000
     atom:   62    charge:    1.8143    magn:    0.2496    constr:    0.0000
     atom:   63    charge:    1.8128    magn:   -0.0087    constr:    0.0000

     total cpu time spent up to now is        7.6 secs

     End of self-consistent calculation

 ------ SPIN UP ------------


          k = 0.0000 0.0000 0.0000 (  7386 PWs)   bands (ev):

    -8.5724  -7.0215  -6.2690  -6.2690  -6.1637  -6.1637  -5.8852  -4.9474
    -4.1281  -4.1281  -4.0961  -4.0961  -4.0365  -4.0365  -3.9860  -3.9182
    -3.8686  -3.8686  -3.3635  -2.9611  -2.6751  -2.6751  -2.1198  -0.3633
    -0.3633  -0.3222  -0.2953  -0.0987   0.1804   0.1804   0.2859   0.2859
     0.3597   0.5987   0.8140   0.8141   0.9769   0.9770   1.0140   1.0397
     1.0397   1.0661   1.2938   1.2938   3.0461   3.8803   3.8803   4.0314
     4.2257   4.2257   4.2373   4.2421   4.2790   4.2790   4.4252   4.4252
     4.4931   4.4931   4.5943   4.6734   4.6804   4.6804   4.6834   4.7701
     4.7701   4.9020   4.9582   4.9582   5.0485   5.2190   5.2190   5.2922
     5.3626   5.3626   5.3999   5.4143   5.4143   6.0382   6.0382   6.0712
     6.6342   6.6342   6.7535   6.9960   7.0177   7.0177   7.5047   8.3225
     8.3225   8.4078   8.4831   8.4831   8.6616   8.6616   8.8173   8.8228
     8.8417   8.8417   8.8837   8.8837   8.9312   9.2949   9.2957   9.2957
     9.7089   9.7089   9.9212   9.9309   9.9309   9.9438   9.9686   9.9939
     9.9940   9.9940  10.0216  10.0216  10.1213  10.1213  10.2730  10.2731
    10.3426  10.9730  12.2106  12.4558  12.4558  13.8042  14.7825  14.7826

     occupation numbers 
     1.0000   1.0000   1.0000   1.0000   1.0000   1.0000   1.0000   1.0000
     1.0000   1.0000   1.0000   1.0000   1.0000   1.0000   1.0000   1.0000
     1.0000   1.0000   1.0000   1.0000   1.0000   1.0000   1.0000   1.0000
     1.0000   1.0000   1.0000   1.0000   1.0000   1.0000   1.0000   1.0000
     1.0000   1.0000   1.0000   1.0000   1.0000   1.0000   1.0000   1.0000
     1.0000   1.0000   1.0000   1.0000   1.0000   1.0000   1.0000   1.0000
     1.0000   1.0000   1.0000   1.0000   1.0000   1.0000   1.0000   1.0000
     1.0000   1.0000   1.0000   1.0000   1.0000   1.0000   1.0000   1.0000
     1.0000   1.0000   1.0000   1.0000   1.0000   1.0000   1.0000   1.0000
     1.0000   1.0000   1.0000   1.0000   1.0000   1.0000   1.0000   1.0000
     1.0000   1.0000   1.0000   1.0000   1.0000   1.0000   1.0000   1.0000
     1.0000   1.0000   1.0000   1.0000   1.0000   1.0000   1.0000   1.0000
     1.0000   1.0000   1.0000   1.0000   1.0000   1.0000   1.0000   1.0000
     1.0000   1.0000   1.0000   1.0000   1.0000   1.0000   1.0000   1.0000
     1.0000   1.0000   1.0000   1.0000   1.0000   1.0000   1.0000   1.0000
     1.0000   1.0000   1.0000   1.0000   1.0000   1.0000   1.0000   1.0000

 ------ SPIN DOWN ----------


          k = 0.0000 0.0000 0.0000 (  7386 PWs)   bands (ev):

    -8.5491  -7.0070  -6.2496  -6.2496  -6.1218  -6.1218  -5.8485  -4.9315
    -4.1080  -4.1080  -4.0806  -4.0806  -3.9805  -3.9805  -3.9607  -3.9064
    -3.8228  -3.8227  -3.3199  -2.9432  -2.6210  -2.6210  -1.9791  -0.3465
    -0.3465  -0.3038  -0.2740  -0.0324   0.1960   0.1960   0.3210   0.3210
     0.3852   0.6311   0.8266   0.8266   1.0017   1.0017   1.0467   1.0550
     1.0550   1.0841   1.4651   1.4651   3.1607   3.9007   3.9007   4.0542
     4.2616   4.2616   4.2621   4.2749   4.2991   4.2991   4.4766   4.4766
     4.5116   4.5117   4.6212   4.6957   4.6963   4.6993   4.6993   4.8069
     4.8069   4.9140   4.9900   4.9901   5.1326   5.2528   5.2528   5.3160
     5.3736   5.3736   5.4123   5.4742   5.4742   6.0980   6.0980   6.1119
     6.6606   6.6606   6.7879   7.0388   7.1102   7.1102   7.6833   8.3604
     8.3604   8.4441   8.5157   8.5157   8.6921   8.6921   8.8541   8.8587
     8.8587   8.8698   8.9363   8.9363   8.9551   9.3222   9.3322   9.3322
     9.7379   9.7380   9.9378   9.9451   9.9451   9.9702   9.9951  10.0070
    10.0137  10.0137  10.0549  10.0549  10.1535  10.1535  10.3284  10.3284
    10.4039  11.3698  12.5174  12.6026  12.6026  14.2723  16.1445  16.1445

     occupation numbers 
     1.0000   1.0000   1.0000   1.0000   1.0000   1.0000   1.0000   1.0000
     1.0000   1.0000   1.0000   1.0000   1.0000   1.0000   1.0000   1.0000
     1.0000   1.0000   1.0000   1.0000   1.0000   1.0000   1.0000   1.0000
     1.0000   1.0000   1.0000   1.0000   1.0000   1.0000   1.0000   1.0000
     1.0000   1.0000   1.0000   1.0000   1.0000   1.0000   1.0000   1.0000
     1.0000   1.0000   1.0000   1.0000   1.0000   1.0000   1.0000   1.0000
     1.0000   1.0000   1.0000   1.0000   1.0000   1.0000   1.0000   1.0000
     1.0000   1.0000   1.0000   1.0000   1.0000   1.0000   1.0000   1.0000
     1.0000   1.0000   1.0000   1.0000   1.0000   1.0000   1.0000   1.0000
     1.0000   1.0000   1.0000   1.0000   1.0000   1.0000   1.0000   1.0000
     1.0000   1.0000   1.0000   1.0000   1.0000   1.0000   1.0000   1.0000
     1.0000   1.0000   1.0000   1.0000   1.0000   1.0000   1.0000   1.0000
     1.0000   1.0000   1.0000   1.0000   1.0000   1.0000   1.0000   1.0000
     1.0000   1.0000   1.0000   1.0000   1.0000   1.0000   1.0000   1.0000
     1.0000   1.0000   1.0000   1.0000   1.0000   1.0000   1.0000   1.0000
     1.0000   1.0000   1.0000   1.0000   1.0000   1.0000   0.0000   0.0000

     highest occupied, lowest unoccupied level (ev):    14.7826   16.1445

!    total energy              =    -723.91902973 Ry
     Harris-Foulkes estimate   =    -723.91902973 Ry
     estimated scf accuracy    <          9.3E-09 Ry

     The total energy is the sum of the following terms:

     one-electron contribution =     232.51635845 Ry
     hartree contribution      =      70.11428334 Ry
     xc contribution           =    -226.70036041 Ry
     ewald contribution        =    -799.84931111 Ry

     total magnetization       =     2.00 Bohr mag/cell
     absolute magnetization    =     2.29 Bohr mag/cell

     convergence has been achieved in  13 iterations


     Computing stress (Cartesian axis) and pressure

          total   stress  (Ry/bohr**3)                   (kbar)     P=  -39.93
  -0.00027139   0.00009908   0.00009908        -39.92     14.58     14.57
   0.00009908  -0.00027142   0.00009907         14.58    -39.93     14.57
   0.00009908   0.00009907  -0.00027141         14.57     14.57    -39.93

     kinetic stress (kbar)  21543.56     55.25     55.25
                               55.25  21543.56     55.25
                               55.25     55.25  21543.56

     local   stress (kbar)  -3941.33     31.50     31.50
                               31.50  -3941.35     31.50
                               31.50     31.50  -3941.34

     nonloc. stress (kbar)   1168.78    -11.69    -11.69
                              -11.69   1168.78    -11.69
                              -11.69    -11.69   1168.78

     hartree stress (kbar)   1401.99    -29.43    -29.43
                              -29.43   1402.00    -29.43
                              -29.43    -29.43   1401.99

     exc-cor stress (kbar)  -4219.25     -0.15     -0.15
                               -0.15  -4219.25     -0.15
                               -0.15     -0.15  -4219.25

     corecor stress (kbar)      0.00      0.00      0.00
                                0.00      0.00      0.00
                                0.00      0.00      0.00

     ewald   stress (kbar) -15993.66    -30.91    -30.91
                              -30.91 -15993.66    -30.91
                              -30.91    -30.91 -15993.66

     hubbard stress (kbar)      0.00      0.00      0.00
                                0.00      0.00      0.00
                                0.00      0.00      0.00

     london  stress (kbar)      0.00      0.00      0.00
                                0.00      0.00      0.00
                                0.00      0.00      0.00

     DFT-D3  stress (kbar)      0.00      0.00      0.00
                                0.00      0.00      0.00
                                0.00      0.00      0.00

     XDM     stress (kbar)      0.00      0.00      0.00
                                0.00      0.00      0.00
                                0.00      0.00      0.00

     dft-nl  stress (kbar)      0.00      0.00      0.00
                                0.00      0.00      0.00
                                0.00      0.00      0.00

     TS-vdW  stress (kbar)      0.00      0.00      0.00
                                0.00      0.00      0.00
                                0.00      0.00      0.00



     Writing output data file pwscf.save/
 
     init_run     :      0.11s CPU      0.13s WALL (       1 calls)
     electrons    :      7.08s CPU      7.28s WALL (       1 calls)
     stress       :      0.15s CPU      0.17s WALL (       1 calls)

     Called by init_run:
     wfcinit      :      0.07s CPU      0.08s WALL (       1 calls)
     wfcinit:atom :      0.00s CPU      0.00s WALL (       2 calls)
     wfcinit:wfcr :      0.06s CPU      0.08s WALL (       2 calls)
     potinit      :      0.01s CPU      0.02s WALL (       1 calls)
     hinit0       :      0.01s CPU      0.01s WALL (       1 calls)

     Called by electrons:
     c_bands      :      6.67s CPU      6.84s WALL (      13 calls)
     sum_band     :      0.26s CPU      0.27s WALL (      13 calls)
     v_of_rho     :      0.12s CPU      0.12s WALL (      14 calls)
     v_h          :      0.01s CPU      0.01s WALL (      14 calls)
     v_xc         :      0.12s CPU      0.12s WALL (      14 calls)
     mix_rho      :      0.02s CPU      0.03s WALL (      13 calls)

     Called by c_bands:
     init_us_2    :      0.03s CPU      0.03s WALL (      56 calls)
     regterg      :      6.55s CPU      6.71s WALL (      26 calls)

     Called by sum_band:

     Called by *egterg:
     h_psi        :      1.99s CPU      2.03s WALL (     145 calls)
     g_psi        :      0.01s CPU      0.01s WALL (     117 calls)
     rdiaghg      :      3.99s CPU      4.10s WALL (     143 calls)
     regterg:over :      0.25s CPU      0.25s WALL (     117 calls)
     regterg:upda :      0.22s CPU      0.23s WALL (     117 calls)
     regterg:last :      0.09s CPU      0.09s WALL (      30 calls)
     rdiaghg:chol :      0.15s CPU      0.16s WALL (     143 calls)
     rdiaghg:inve :      0.07s CPU      0.07s WALL (     143 calls)
     rdiaghg:para :      0.17s CPU      0.20s WALL (     286 calls)

     Called by h_psi:
     h_psi:pot    :      1.98s CPU      2.02s WALL (     145 calls)
     h_psi:calbec :      0.24s CPU      0.25s WALL (     145 calls)
     vloc_psi     :      1.57s CPU      1.59s WALL (     145 calls)
     add_vuspsi   :      0.18s CPU      0.18s WALL (     145 calls)

     General routines
     calbec       :      0.25s CPU      0.26s WALL (     147 calls)
     fft          :      0.07s CPU      0.07s WALL (     214 calls)
     ffts         :      0.01s CPU      0.01s WALL (      26 calls)
     fftw         :      1.72s CPU      1.74s WALL (   13264 calls)
 
     Parallel routines
     fft_scatt_xy :      0.20s CPU      0.21s WALL (   13504 calls)
     fft_scatt_yz :      1.21s CPU      1.23s WALL (   13504 calls)
 
     PWSCF        :      7.55s CPU      8.12s WALL

 
   This run was terminated on:  17:11:55  14Feb2020            

=------------------------------------------------------------------------------=
   JOB DONE.
=------------------------------------------------------------------------------=
